ITEM: TIMESTEP
0
ITEM: NUMBER OF ATOMS
416
ITEM: BOX BOUNDS sm sm sm
-0.5 0.5
-0.5 0.5
0 0
ITEM: ATOMS id type tag x y z vx vy vz s11 s22 s33 s12 s13 s23 volume 
1 1 1 -0.4624 -0.4124 0 0.1 0.1 0 -8.54018e-16 -8.54018e-16 -5.12411e-16 -3.41607e-16 0 0 0.000625 
2 1 2 -0.4874 -0.3624 0 0.1 0.1 0 -4.9106e-16 -5.76462e-16 -3.20257e-16 -2.13504e-16 0 0 0.000625 
3 1 3 -0.4624 -0.3874 0 0.1 0.1 0 -2.77556e-16 -3.62958e-16 -1.92154e-16 -1.28103e-16 0 0 0.000625 
4 1 4 -0.4624 -0.3624 0 0.1 0.1 0 -4.27009e-16 -4.27009e-16 -2.56205e-16 -1.70804e-16 0 0 0.000625 
5 1 5 -0.4874 -0.3374 0 0.1 0.1 0 1.06752e-16 5.33761e-16 1.92154e-16 1.28103e-16 0 0 0.000625 
6 1 6 -0.4874 -0.3124 0 0.1 0.1 0 -4.27009e-17 4.6971e-16 1.28103e-16 8.54018e-17 0 0 0.000625 
7 1 7 -0.4624 -0.3374 0 0.1 0.1 0 2.34855e-16 8.32667e-16 3.20257e-16 2.13504e-16 0 0 0.000625 
8 1 8 -0.4624 -0.3124 0 0.1 0.1 0 8.54018e-17 7.68616e-16 2.56205e-16 1.70804e-16 0 0 0.000625 
9 1 9 -0.4874 -0.2874 0 0.1 0.1 0 -2.77556e-16 -3.62958e-16 -1.92154e-16 -1.28103e-16 0 0 0.000625 
10 1 10 -0.4874 -0.2624 0 0.1 0.1 0 1.70804e-16 -1.70804e-16 0 0 0 0 0.000625 
11 1 11 -0.4624 -0.2874 0 0.1 0.1 0 -2.77556e-16 -3.62958e-16 -1.92154e-16 -1.28103e-16 0 0 0.000625 
12 1 12 -0.4624 -0.2624 0 0.1 0.1 0 1.70804e-16 -1.70804e-16 0 0 0 0 0.000625 
13 1 13 -0.4874 -0.2374 0 0.1 0.1 0 3.62958e-16 2.77556e-16 1.92154e-16 1.28103e-16 0 0 0.000625 
14 1 14 -0.4624 -0.2374 0 0.1 0.1 0 2.98906e-16 1.28103e-16 1.28103e-16 8.54018e-17 0 0 0.000625 
15 1 15 -0.4624 -0.2124 0 0.1 0.1 0 0 0 0 0 0 0 0.000625 
16 1 16 -0.4624 -0.1874 0 0.1 0.1 0 -1.92154e-16 4.05658e-16 6.40513e-17 4.27009e-17 0 0 0.000625 
17 1 17 -0.4124 -0.4624 0 0.1 0.1 0 -1.02482e-15 -6.83214e-16 -5.12411e-16 -3.41607e-16 0 0 0.000625 
18 1 18 -0.4374 -0.4374 0 0.1 0.1 0 -8.75368e-16 -6.19163e-16 -4.48359e-16 -2.98906e-16 0 0 0.000625 
19 1 19 -0.4374 -0.4124 0 0.1 0.1 0 1.70804e-16 -1.70804e-16 0 0 0 0 0.000625 
20 1 20 -0.4124 -0.4374 0 0.1 0.1 0 -6.19163e-16 -2.13505e-17 -1.92154e-16 -1.28103e-16 0 0 0.000625 
21 1 21 -0.4124 -0.4124 0 0.1 0.1 0 4.27009e-16 4.27009e-16 2.56205e-16 1.70804e-16 0 0 0.000625 
22 1 22 -0.4374 -0.3874 0 0.1 0.1 0 -1.06752e-16 -5.33761e-16 -1.92154e-16 -1.28103e-16 0 0 0.000625 
23 1 23 -0.4374 -0.3624 0 0.1 0.1 0 -5.55112e-16 -7.25915e-16 -3.84308e-16 -2.56205e-16 0 0 0.000625 
24 1 24 -0.4124 -0.3874 0 0.1 0.1 0 -2.34855e-16 -8.32667e-16 -3.20257e-16 -2.13504e-16 0 0 0.000625 
25 1 25 -0.4124 -0.3624 0 0.1 0.1 0 -6.83214e-16 -1.02482e-15 -5.12411e-16 -3.41607e-16 0 0 0.000625 
26 1 26 -0.4374 -0.3374 0 0.1 0.1 0 2.34855e-16 8.32667e-16 3.20257e-16 2.13504e-16 0 0 0.000625 
27 1 27 -0.4374 -0.3124 0 0.1 0.1 0 6.83214e-16 1.02482e-15 5.12411e-16 3.41607e-16 0 0 0.000625 
28 1 28 -0.4124 -0.3374 0 0.1 0.1 0 2.34855e-16 8.32667e-16 3.20257e-16 2.13504e-16 0 0 0.000625 
29 1 29 -0.4124 -0.3124 0 0.1 0.1 0 6.83214e-16 1.02482e-15 5.12411e-16 3.41607e-16 0 0 0.000625 
30 1 30 -0.4374 -0.2874 0 0.1 0.1 0 -1.49453e-16 -6.40513e-17 -6.40513e-17 -4.27009e-17 0 0 0.000625 
31 1 31 -0.4374 -0.2624 0 0.1 0.1 0 -2.98906e-16 -1.28103e-16 -1.28103e-16 -8.54018e-17 0 0 0.000625 
32 1 32 -0.4124 -0.2874 0 0.1 0.1 0 -1.49453e-16 -6.40513e-17 -6.40513e-17 -4.27009e-17 0 0 0.000625 
33 1 33 -0.4124 -0.2624 0 0.1 0.1 0 -2.98906e-16 -1.28103e-16 -1.28103e-16 -8.54018e-17 0 0 0.000625 
34 1 34 -0.4374 -0.2374 0 0.1 0.1 0 -1.06752e-16 -5.33761e-16 -1.92154e-16 -1.28103e-16 0 0 0.000625 
35 1 35 -0.4374 -0.2124 0 0.1 0.1 0 -5.55112e-16 -7.25915e-16 -3.84308e-16 -2.56205e-16 0 0 0.000625 
36 1 36 -0.4124 -0.2374 0 0.1 0.1 0 -2.34855e-16 -8.32667e-16 -3.20257e-16 -2.13504e-16 0 0 0.000625 
37 1 37 -0.4124 -0.2124 0 0.1 0.1 0 -6.83214e-16 -1.02482e-15 -5.12411e-16 -3.41607e-16 0 0 0.000625 
38 1 38 -0.4374 -0.1874 0 0.1 0.1 0 2.13505e-17 6.19163e-16 1.92154e-16 1.28103e-16 0 0 0.000625 
39 1 39 -0.4374 -0.1624 0 0.1 0.1 0 -2.77556e-16 4.9106e-16 6.40513e-17 4.27009e-17 0 0 0.000625 
40 1 40 -0.4124 -0.1874 0 0.1 0.1 0 -4.27009e-17 4.6971e-16 1.28103e-16 8.54018e-17 0 0 0.000625 
41 1 41 -0.4124 -0.1624 0 0.1 0.1 0 -3.41607e-16 3.41607e-16 0 0 0 0 0.000625 
42 1 42 -0.4124 -0.1374 0 0.1 0.1 0 -5.97812e-16 -2.56205e-16 -2.56205e-16 -1.70804e-16 0 0 0.000625 
43 1 43 -0.3874 -0.4624 0 0.1 0.1 0 4.6971e-16 -4.27009e-17 1.28103e-16 8.54018e-17 0 0 0.000625 
44 1 44 -0.3624 -0.4874 0 0.1 0.1 0 0 0 0 0 0 0 0.000625 
45 1 45 -0.3624 -0.4624 0 0.1 0.1 0 5.97812e-16 2.56205e-16 2.56205e-16 1.70804e-16 0 0 0.000625 
46 1 46 -0.3874 -0.4374 0 0.1 0.1 0 4.27009e-17 3.84308e-16 1.28103e-16 8.54018e-17 0 0 0.000625 
47 1 47 -0.3874 -0.4124 0 0.1 0.1 0 -1.06752e-16 3.20257e-16 6.40513e-17 4.27009e-17 0 0 0.000625 
48 1 48 -0.3624 -0.4374 0 0.1 0.1 0 -1.49453e-16 -6.40513e-17 -6.40513e-17 -4.27009e-17 0 0 0.000625 
49 1 49 -0.3624 -0.4124 0 0.1 0.1 0 -2.98906e-16 -1.28103e-16 -1.28103e-16 -8.54018e-17 0 0 0.000625 
50 1 50 -0.3874 -0.3874 0 0.1 0.1 0 -7.04565e-16 -7.89966e-16 -4.48359e-16 -2.98906e-16 0 0 0.000625 
51 1 51 -0.3874 -0.3624 0 0.1 0.1 0 -5.55112e-16 -7.25915e-16 -3.84308e-16 -2.56205e-16 0 0 0.000625 
52 1 52 -0.3624 -0.3874 0 0.1 0.1 0 -5.76462e-16 -4.9106e-16 -3.20257e-16 -2.13504e-16 0 0 0.000625 
53 1 53 -0.3624 -0.3624 0 0.1 0.1 0 -4.27009e-16 -4.27009e-16 -2.56205e-16 -1.70804e-16 0 0 0.000625 
54 1 54 -0.3874 -0.3374 0 0.1 0.1 0 -2.77556e-16 4.9106e-16 6.40513e-17 4.27009e-17 0 0 0.000625 
55 1 55 -0.3874 -0.3124 0 0.1 0.1 0 3.20257e-16 7.47266e-16 3.20257e-16 2.13504e-16 0 0 0.000625 
56 1 56 -0.3624 -0.3374 0 0.1 0.1 0 -3.41607e-16 3.41607e-16 0 0 0 0 0.000625 
57 1 57 -0.3624 -0.3124 0 0.1 0.1 0 2.56205e-16 5.97812e-16 2.56205e-16 1.70804e-16 0 0 0.000625 
58 1 58 -0.3874 -0.2874 0 0.1 0.1 0 -8.11317e-16 -4.6971e-16 -3.84308e-16 -2.56205e-16 0 0 0.000625 
59 1 59 -0.3874 -0.2624 0 0.1 0.1 0 -9.6077e-16 -5.33761e-16 -4.48359e-16 -2.98906e-16 0 0 0.000625 
60 1 60 -0.3624 -0.2874 0 0.1 0.1 0 -8.75368e-16 -6.19163e-16 -4.48359e-16 -2.98906e-16 0 0 0.000625 
61 1 61 -0.3624 -0.2624 0 0.1 0.1 0 -1.02482e-15 -6.83214e-16 -5.12411e-16 -3.41607e-16 0 0 0.000625 
62 1 62 -0.3874 -0.2374 0 0.1 0.1 0 -7.04565e-16 -7.89966e-16 -4.48359e-16 -2.98906e-16 0 0 0.000625 
63 1 63 -0.3874 -0.2124 0 0.1 0.1 0 -5.55112e-16 -7.25915e-16 -3.84308e-16 -2.56205e-16 0 0 0.000625 
64 1 64 -0.3624 -0.2374 0 0.1 0.1 0 -5.76462e-16 -4.9106e-16 -3.20257e-16 -2.13504e-16 0 0 0.000625 
65 1 65 -0.3624 -0.2124 0 0.1 0.1 0 -4.27009e-16 -4.27009e-16 -2.56205e-16 -1.70804e-16 0 0 0.000625 
66 1 66 -0.3874 -0.1874 0 0.1 0.1 0 4.05658e-16 6.61864e-16 3.20257e-16 2.13504e-16 0 0 0.000625 
67 1 67 -0.3874 -0.1624 0 0.1 0.1 0 8.54018e-16 8.54018e-16 5.12411e-16 3.41607e-16 0 0 0.000625 
68 1 68 -0.3624 -0.1874 0 0.1 0.1 0 6.61864e-16 1.25968e-15 5.76462e-16 3.84308e-16 0 0 0.000625 
69 1 69 -0.3624 -0.1624 0 0.1 0.1 0 1.11022e-15 1.45183e-15 7.68616e-16 5.12411e-16 0 0 0.000625 
70 1 70 -0.3874 -0.1374 0 0.1 0.1 0 5.33761e-16 1.06752e-16 1.92154e-16 1.28103e-16 0 0 0.000625 
71 1 71 -0.3624 -0.1374 0 0.1 0.1 0 3.41607e-16 -3.41607e-16 0 0 0 0 0.000625 
72 1 72 -0.3624 -0.1124 0 0.1 0.1 0 -2.56205e-16 -5.97812e-16 -2.56205e-16 -1.70804e-16 0 0 0.000625 
73 1 73 -0.3374 -0.4874 0 0.1 0.1 0 -2.13504e-17 2.34855e-16 6.40513e-17 4.27009e-17 0 0 0.000625 
74 1 74 -0.3374 -0.4624 0 0.1 0.1 0 4.27009e-16 4.27009e-16 2.56205e-16 1.70804e-16 0 0 0.000625 
75 1 75 -0.3124 -0.4874 0 0.1 0.1 0 1.06752e-16 5.33761e-16 1.92154e-16 1.28103e-16 0 0 0.000625 
76 1 76 -0.3124 -0.4624 0 0.1 0.1 0 5.55112e-16 7.25915e-16 3.84308e-16 2.56205e-16 0 0 0.000625 
77 1 77 -0.3374 -0.4374 0 0.1 0.1 0 3.20257e-16 -1.06752e-16 6.40513e-17 4.27009e-17 0 0 0.000625 
78 1 78 -0.3374 -0.4124 0 0.1 0.1 0 1.06752e-15 2.13504e-16 3.84308e-16 2.56205e-16 0 0 0.000625 
79 1 79 -0.3124 -0.4374 0 0.1 0.1 0 4.48359e-16 1.92154e-16 1.92154e-16 1.28103e-16 0 0 0.000625 
80 1 80 -0.3124 -0.4124 0 0.1 0.1 0 1.19562e-15 5.12411e-16 5.12411e-16 3.41607e-16 0 0 0.000625 
81 1 81 -0.3374 -0.3874 0 0.1 0.1 0 7.89966e-16 -1.49453e-16 1.92154e-16 1.28103e-16 0 0 0.000625 
82 1 82 -0.3374 -0.3624 0 0.1 0.1 0 4.27009e-17 -4.6971e-16 -1.28103e-16 -8.54018e-17 0 0 0.000625 
83 1 83 -0.3124 -0.3874 0 0.1 0.1 0 6.61864e-16 -4.48359e-16 6.40513e-17 4.27009e-17 0 0 0.000625 
84 1 84 -0.3124 -0.3624 0 0.1 0.1 0 -8.54018e-17 -7.68616e-16 -2.56205e-16 -1.70804e-16 0 0 0.000625 
85 1 85 -0.3374 -0.3374 0 0.1 0.1 0 1.04617e-15 1.30238e-15 7.04565e-16 4.6971e-16 0 0 0.000625 
86 1 86 -0.3374 -0.3124 0 0.1 0.1 0 1.34508e-15 1.43048e-15 8.32667e-16 5.55112e-16 0 0 0.000625 
87 1 87 -0.3124 -0.3374 0 0.1 0.1 0 1.23833e-15 1.75074e-15 8.96719e-16 5.97812e-16 0 0 0.000625 
88 1 88 -0.3124 -0.3124 0 0.1 0.1 0 1.53723e-15 1.87884e-15 1.02482e-15 6.83214e-16 0 0 0.000625 
89 1 89 -0.3374 -0.2874 0 0.1 0.1 0 8.54018e-16 2.54517e-23 2.56205e-16 1.70804e-16 0 0 0.000625 
90 1 90 -0.3374 -0.2624 0 0.1 0.1 0 1.30238e-15 1.92154e-16 4.48359e-16 2.98906e-16 0 0 0.000625 
91 1 91 -0.3124 -0.2874 0 0.1 0.1 0 7.89966e-16 -1.49453e-16 1.92154e-16 1.28103e-16 0 0 0.000625 
92 1 92 -0.3124 -0.2624 0 0.1 0.1 0 1.23833e-15 4.27009e-17 3.84308e-16 2.56205e-16 0 0 0.000625 
93 1 93 -0.3374 -0.2374 0 0.1 0.1 0 7.89966e-16 -1.49453e-16 1.92154e-16 1.28103e-16 0 0 0.000625 
94 1 94 -0.3374 -0.2124 0 0.1 0.1 0 4.27009e-17 -4.6971e-16 -1.28103e-16 -8.54018e-17 0 0 0.000625 
95 1 95 -0.3124 -0.2374 0 0.1 0.1 0 6.61864e-16 -4.48359e-16 6.40513e-17 4.27009e-17 0 0 0.000625 
96 1 96 -0.3124 -0.2124 0 0.1 0.1 0 -8.54018e-17 -7.68616e-16 -2.56205e-16 -1.70804e-16 0 0 0.000625 
97 1 97 -0.3374 -0.1874 0 0.1 0.1 0 1.30238e-15 1.90019e-15 9.6077e-16 6.40513e-16 0 0 0.000625 
98 1 98 -0.3374 -0.1624 0 0.1 0.1 0 1.00347e-15 1.77209e-15 8.32667e-16 5.55112e-16 0 0 0.000625 
99 1 99 -0.3124 -0.1874 0 0.1 0.1 0 1.23833e-15 1.75074e-15 8.96719e-16 5.97812e-16 0 0 0.000625 
100 1 100 -0.3124 -0.1624 0 0.1 0.1 0 9.3942e-16 1.62263e-15 7.68616e-16 5.12411e-16 0 0 0.000625 
101 1 101 -0.3374 -0.1374 0 0.1 0.1 0 -2.98906e-16 -9.8212e-16 -3.84308e-16 -2.56205e-16 0 0 0.000625 
102 1 102 -0.3374 -0.1124 0 0.1 0.1 0 -4.48359e-16 -1.04617e-15 -4.48359e-16 -2.98906e-16 0 0 0.000625 
103 1 103 -0.3124 -0.1374 0 0.1 0.1 0 -4.9106e-16 -1.43048e-15 -5.76462e-16 -3.84308e-16 0 0 0.000625 
104 1 104 -0.3124 -0.1124 0 0.1 0.1 0 -6.40513e-16 -1.49453e-15 -6.40513e-16 -4.27009e-16 0 0 0.000625 
105 1 105 -0.2874 -0.4874 0 0.1 0.1 0 2.56205e-16 5.97812e-16 2.56205e-16 1.70804e-16 0 0 0.000625 
106 1 106 -0.2874 -0.4624 0 0.1 0.1 0 2.56205e-16 5.97812e-16 2.56205e-16 1.70804e-16 0 0 0.000625 
107 1 107 -0.2624 -0.4874 0 0.1 0.1 0 1.28103e-16 2.98906e-16 1.28103e-16 8.54018e-17 0 0 0.000625 
108 1 108 -0.2624 -0.4624 0 0.1 0.1 0 1.28103e-16 2.98906e-16 1.28103e-16 8.54018e-17 0 0 0.000625 
109 1 109 -0.2874 -0.4374 0 0.1 0.1 0 -2.56205e-16 2.56205e-16 0 0 0 0 0.000625 
110 1 110 -0.2874 -0.4124 0 0.1 0.1 0 -1.06752e-16 3.20257e-16 6.40513e-17 4.27009e-17 0 0 0.000625 
111 1 111 -0.2624 -0.4374 0 0.1 0.1 0 -3.20257e-16 1.06752e-16 -6.40513e-17 -4.27009e-17 0 0 0.000625 
112 1 112 -0.2624 -0.4124 0 0.1 0.1 0 -1.70804e-16 1.70804e-16 0 0 0 0 0.000625 
113 1 113 -0.2874 -0.3874 0 0.1 0.1 0 -9.6077e-16 -1.38778e-15 -7.04565e-16 -4.6971e-16 0 0 0.000625 
114 1 114 -0.2874 -0.3624 0 0.1 0.1 0 -8.11317e-16 -1.32373e-15 -6.40513e-16 -4.27009e-16 0 0 0.000625 
115 1 115 -0.2624 -0.3874 0 0.1 0.1 0 -8.32667e-16 -1.08887e-15 -5.76462e-16 -3.84308e-16 0 0 0.000625 
116 1 116 -0.2624 -0.3624 0 0.1 0.1 0 -6.83214e-16 -1.02482e-15 -5.12411e-16 -3.41607e-16 0 0 0.000625 
117 1 117 -0.2874 -0.3374 0 0.1 0.1 0 4.9106e-16 1.43048e-15 5.76462e-16 3.84308e-16 0 0 0.000625 
118 1 118 -0.2874 -0.3124 0 0.1 0.1 0 3.41607e-16 1.36643e-15 5.12411e-16 3.41607e-16 0 0 0.000625 
119 1 119 -0.2624 -0.3374 0 0.1 0.1 0 2.34855e-16 8.32667e-16 3.20257e-16 2.13504e-16 0 0 0.000625 
120 1 120 -0.2624 -0.3124 0 0.1 0.1 0 8.54018e-17 7.68616e-16 2.56205e-16 1.70804e-16 0 0 0.000625 
121 1 121 -0.2874 -0.2874 0 0.1 0.1 0 -8.75368e-16 -6.19163e-16 -4.48359e-16 -2.98906e-16 0 0 0.000625 
122 1 122 -0.2874 -0.2624 0 0.1 0.1 0 -4.27009e-16 -4.27009e-16 -2.56205e-16 -1.70804e-16 0 0 0.000625 
123 1 123 -0.2624 -0.2874 0 0.1 0.1 0 -8.75368e-16 -6.19163e-16 -4.48359e-16 -2.98906e-16 0 0 0.000625 
124 1 124 -0.2624 -0.2624 0 0.1 0.1 0 -4.27009e-16 -4.27009e-16 -2.56205e-16 -1.70804e-16 0 0 0.000625 
125 1 125 -0.2874 -0.2374 0 0.1 0.1 0 -9.6077e-16 -1.38778e-15 -7.04565e-16 -4.6971e-16 0 0 0.000625 
126 1 126 -0.2874 -0.2124 0 0.1 0.1 0 -8.11317e-16 -1.32373e-15 -6.40513e-16 -4.27009e-16 0 0 0.000625 
127 1 127 -0.2624 -0.2374 0 0.1 0.1 0 -8.32667e-16 -1.08887e-15 -5.76462e-16 -3.84308e-16 0 0 0.000625 
128 1 128 -0.2624 -0.2124 0 0.1 0.1 0 -6.83214e-16 -1.02482e-15 -5.12411e-16 -3.41607e-16 0 0 0.000625 
129 1 129 -0.2874 -0.1874 0 0.1 0.1 0 4.9106e-16 1.43048e-15 5.76462e-16 3.84308e-16 0 0 0.000625 
130 1 130 -0.2874 -0.1624 0 0.1 0.1 0 3.41607e-16 1.36643e-15 5.12411e-16 3.41607e-16 0 0 0.000625 
131 1 131 -0.2624 -0.1874 0 0.1 0.1 0 2.34855e-16 8.32667e-16 3.20257e-16 2.13504e-16 0 0 0.000625 
132 1 132 -0.2624 -0.1624 0 0.1 0.1 0 8.54018e-17 7.68616e-16 2.56205e-16 1.70804e-16 0 0 0.000625 
133 1 133 -0.2874 -0.1374 0 0.1 0.1 0 -8.75368e-16 -1.47318e-15 -7.04565e-16 -4.6971e-16 0 0 0.000625 
134 1 134 -0.2874 -0.1124 0 0.1 0.1 0 -5.76462e-16 -1.34508e-15 -5.76462e-16 -3.84308e-16 0 0 0.000625 
135 1 135 -0.2624 -0.1374 0 0.1 0.1 0 -5.55112e-16 -7.25915e-16 -3.84308e-16 -2.56205e-16 0 0 0.000625 
136 1 136 -0.2624 -0.1124 0 0.1 0.1 0 -2.56205e-16 -5.97812e-16 -2.56205e-16 -1.70804e-16 0 0 0.000625 
137 1 137 -0.2374 -0.4874 0 0.1 0.1 0 2.34855e-16 -2.13504e-17 6.40513e-17 4.27009e-17 0 0 0.000625 
138 1 138 -0.2374 -0.4624 0 0.1 0.1 0 -6.40513e-17 -1.49453e-16 -6.40513e-17 -4.27009e-17 0 0 0.000625 
139 1 139 -0.2124 -0.4624 0 0.1 0.1 0 -1.28103e-16 -2.98906e-16 -1.28103e-16 -8.54018e-17 0 0 0.000625 
140 1 140 -0.2374 -0.4374 0 0.1 0.1 0 -8.54018e-17 8.54018e-17 0 0 0 0 0.000625 
141 1 141 -0.2374 -0.4124 0 0.1 0.1 0 -8.32667e-16 -2.34855e-16 -3.20257e-16 -2.13504e-16 0 0 0.000625 
142 1 142 -0.2124 -0.4374 0 0.1 0.1 0 -2.77556e-16 -3.62958e-16 -1.92154e-16 -1.28103e-16 0 0 0.000625 
143 1 143 -0.2124 -0.4124 0 0.1 0.1 0 -1.02482e-15 -6.83214e-16 -5.12411e-16 -3.41607e-16 0 0 0.000625 
144 1 144 -0.2374 -0.3874 0 0.1 0.1 0 -7.04565e-16 -7.89966e-16 -4.48359e-16 -2.98906e-16 0 0 0.000625 
145 1 145 -0.2374 -0.3624 0 0.1 0.1 0 -5.55112e-16 -7.25915e-16 -3.84308e-16 -2.56205e-16 0 0 0.000625 
146 1 146 -0.2124 -0.3874 0 0.1 0.1 0 -5.76462e-16 -4.9106e-16 -3.20257e-16 -2.13504e-16 0 0 0.000625 
147 1 147 -0.2124 -0.3624 0 0.1 0.1 0 -4.27009e-16 -4.27009e-16 -2.56205e-16 -1.70804e-16 0 0 0.000625 
148 1 148 -0.2374 -0.3374 0 0.1 0.1 0 -2.77556e-16 4.9106e-16 6.40513e-17 4.27009e-17 0 0 0.000625 
149 1 149 -0.2374 -0.3124 0 0.1 0.1 0 3.20257e-16 7.47266e-16 3.20257e-16 2.13504e-16 0 0 0.000625 
150 1 150 -0.2124 -0.3374 0 0.1 0.1 0 -3.41607e-16 3.41607e-16 0 0 0 0 0.000625 
151 1 151 -0.2124 -0.3124 0 0.1 0.1 0 2.56205e-16 5.97812e-16 2.56205e-16 1.70804e-16 0 0 0.000625 
152 1 152 -0.2374 -0.2874 0 0.1 0.1 0 -8.11317e-16 -4.6971e-16 -3.84308e-16 -2.56205e-16 0 0 0.000625 
153 1 153 -0.2374 -0.2624 0 0.1 0.1 0 -9.6077e-16 -5.33761e-16 -4.48359e-16 -2.98906e-16 0 0 0.000625 
154 1 154 -0.2124 -0.2874 0 0.1 0.1 0 -8.75368e-16 -6.19163e-16 -4.48359e-16 -2.98906e-16 0 0 0.000625 
155 1 155 -0.2124 -0.2624 0 0.1 0.1 0 -1.02482e-15 -6.83214e-16 -5.12411e-16 -3.41607e-16 0 0 0.000625 
156 1 156 -0.2374 -0.2374 0 0.1 0.1 0 -7.04565e-16 -7.89966e-16 -4.48359e-16 -2.98906e-16 0 0 0.000625 
157 1 157 -0.2374 -0.2124 0 0.1 0.1 0 -5.55112e-16 -7.25915e-16 -3.84308e-16 -2.56205e-16 0 0 0.000625 
158 1 158 -0.2124 -0.2374 0 0.1 0.1 0 -5.76462e-16 -4.9106e-16 -3.20257e-16 -2.13504e-16 0 0 0.000625 
159 1 159 -0.2124 -0.2124 0 0.1 0.1 0 -4.27009e-16 -4.27009e-16 -2.56205e-16 -1.70804e-16 0 0 0.000625 
160 1 160 -0.2374 -0.1874 0 0.1 0.1 0 -2.77556e-16 4.9106e-16 6.40513e-17 4.27009e-17 0 0 0.000625 
161 1 161 -0.2374 -0.1624 0 0.1 0.1 0 3.20257e-16 7.47266e-16 3.20257e-16 2.13504e-16 0 0 0.000625 
162 1 162 -0.2124 -0.1874 0 0.1 0.1 0 -3.41607e-16 3.41607e-16 0 0 0 0 0.000625 
163 1 163 -0.2124 -0.1624 0 0.1 0.1 0 2.56205e-16 5.97812e-16 2.56205e-16 1.70804e-16 0 0 0.000625 
164 1 164 -0.2374 -0.1374 0 0.1 0.1 0 -5.12411e-16 -3.41607e-16 -2.56205e-16 -1.70804e-16 0 0 0.000625 
165 1 165 -0.2374 -0.1124 0 0.1 0.1 0 2.34855e-16 -2.13504e-17 6.40513e-17 4.27009e-17 0 0 0.000625 
166 1 166 -0.2124 -0.1374 0 0.1 0.1 0 -3.20257e-16 1.06752e-16 -6.40513e-17 -4.27009e-17 0 0 0.000625 
167 1 167 -0.1874 -0.4624 0 0.1 0.1 0 5.33761e-16 1.06752e-16 1.92154e-16 1.28103e-16 0 0 0.000625 
168 1 168 -0.1874 -0.4374 0 0.1 0.1 0 4.05658e-16 -1.92154e-16 6.40513e-17 4.27009e-17 0 0 0.000625 
169 1 169 -0.1874 -0.4124 0 0.1 0.1 0 4.05658e-16 -1.92154e-16 6.40513e-17 4.27009e-17 0 0 0.000625 
170 1 170 -0.1624 -0.4374 0 0.1 0.1 0 3.41607e-16 -3.41607e-16 0 0 0 0 0.000625 
171 1 171 -0.1624 -0.4124 0 0.1 0.1 0 3.41607e-16 -3.41607e-16 0 0 0 0 0.000625 
172 1 172 -0.1874 -0.3874 0 0.1 0.1 0 6.83214e-16 1.70804e-16 2.56205e-16 1.70804e-16 0 0 0.000625 
173 1 173 -0.1874 -0.3624 0 0.1 0.1 0 8.32667e-16 2.34855e-16 3.20257e-16 2.13504e-16 0 0 0.000625 
174 1 174 -0.1624 -0.3874 0 0.1 0.1 0 8.75368e-16 6.19163e-16 4.48359e-16 2.98906e-16 0 0 0.000625 
175 1 175 -0.1624 -0.3624 0 0.1 0.1 0 1.02482e-15 6.83214e-16 5.12411e-16 3.41607e-16 0 0 0.000625 
176 1 176 -0.1874 -0.3374 0 0.1 0.1 0 1.51588e-15 1.25968e-15 8.32667e-16 5.55112e-16 0 0 0.000625 
177 1 177 -0.1874 -0.3124 0 0.1 0.1 0 1.21698e-15 1.13157e-15 7.04565e-16 4.6971e-16 0 0 0.000625 
178 1 178 -0.1624 -0.3374 0 0.1 0.1 0 1.57993e-15 1.40913e-15 8.96719e-16 5.97812e-16 0 0 0.000625 
179 1 179 -0.1624 -0.3124 0 0.1 0.1 0 1.28103e-15 1.28103e-15 7.68616e-16 5.12411e-16 0 0 0.000625 
180 1 180 -0.1874 -0.2874 0 0.1 0.1 0 1.06752e-15 2.13504e-16 3.84308e-16 2.56205e-16 0 0 0.000625 
181 1 181 -0.1874 -0.2624 0 0.1 0.1 0 1.66533e-15 4.6971e-16 6.40513e-16 4.27009e-16 0 0 0.000625 
182 1 182 -0.1624 -0.2874 0 0.1 0.1 0 1.06752e-15 2.13504e-16 3.84308e-16 2.56205e-16 0 0 0.000625 
183 1 183 -0.1624 -0.2624 0 0.1 0.1 0 1.66533e-15 4.6971e-16 6.40513e-16 4.27009e-16 0 0 0.000625 
184 1 184 -0.1874 -0.2374 0 0.1 0.1 0 1.23833e-15 4.27009e-17 3.84308e-16 2.56205e-16 0 0 0.000625 
185 1 185 -0.1874 -0.2124 0 0.1 0.1 0 6.40513e-16 -2.13504e-16 1.28103e-16 8.54018e-17 0 0 0.000625 
186 1 186 -0.1624 -0.2374 0 0.1 0.1 0 1.11022e-15 -2.56205e-16 2.56205e-16 1.70804e-16 0 0 0.000625 
187 1 187 -0.1624 -0.2124 0 0.1 0.1 0 5.12411e-16 -5.12411e-16 0 0 0 0 0.000625 
188 1 188 -0.1874 -0.1874 0 0.1 0.1 0 1.06752e-15 1.06752e-15 6.40513e-16 4.27009e-16 0 0 0.000625 
189 1 189 -0.1874 -0.1624 0 0.1 0.1 0 9.18069e-16 1.00347e-15 5.76462e-16 3.84308e-16 0 0 0.000625 
190 1 190 -0.1624 -0.1874 0 0.1 0.1 0 1.00347e-15 9.18069e-16 5.76462e-16 3.84308e-16 0 0 0.000625 
191 1 191 -0.1624 -0.1624 0 0.1 0.1 0 8.54018e-16 8.54018e-16 5.12411e-16 3.41607e-16 0 0 0.000625 
192 1 192 -0.1874 -0.1374 0 0.1 0.1 0 6.61864e-16 4.05658e-16 3.20257e-16 2.13504e-16 0 0 0.000625 
193 1 193 -0.1374 -0.4124 0 0.1 0.1 0 -2.56205e-16 -5.97812e-16 -2.56205e-16 -1.70804e-16 0 0 0.000625 
194 1 194 -0.1374 -0.3874 0 0.1 0.1 0 -8.54018e-17 8.54018e-17 0 0 0 0 0.000625 
195 1 195 -0.1374 -0.3624 0 0.1 0.1 0 -2.34855e-16 2.13504e-17 -6.40513e-17 -4.27009e-17 0 0 0.000625 
196 1 196 -0.1124 -0.3624 0 0.1 0.1 0 -4.27009e-16 -4.27009e-16 -2.56205e-16 -1.70804e-16 0 0 0.000625 
197 1 197 -0.1374 -0.3374 0 0.1 0.1 0 -7.89966e-16 1.49453e-16 -1.92154e-16 -1.28103e-16 0 0 0.000625 
198 1 198 -0.1374 -0.3124 0 0.1 0.1 0 -1.23833e-15 -4.27009e-17 -3.84308e-16 -2.56205e-16 0 0 0.000625 
199 1 199 -0.1124 -0.3374 0 0.1 0.1 0 -9.18069e-16 -1.49453e-16 -3.20257e-16 -2.13504e-16 0 0 0.000625 
200 1 200 -0.1124 -0.3124 0 0.1 0.1 0 -1.36643e-15 -3.41607e-16 -5.12411e-16 -3.41607e-16 0 0 0.000625 
201 1 201 -0.1374 -0.2874 0 0.1 0.1 0 -1.43048e-15 -4.9106e-16 -5.76462e-16 -3.84308e-16 0 0 0.000625 
202 1 202 -0.1374 -0.2624 0 0.1 0.1 0 -1.13157e-15 -3.62958e-16 -4.48359e-16 -2.98906e-16 0 0 0.000625 
203 1 203 -0.1124 -0.2874 0 0.1 0.1 0 -1.36643e-15 -3.41607e-16 -5.12411e-16 -3.41607e-16 0 0 0.000625 
204 1 204 -0.1124 -0.2624 0 0.1 0.1 0 -1.06752e-15 -2.13504e-16 -3.84308e-16 -2.56205e-16 0 0 0.000625 
205 1 205 -0.1374 -0.2374 0 0.1 0.1 0 -1.36643e-15 -1.19562e-15 -7.68616e-16 -5.12411e-16 0 0 0.000625 
206 1 206 -0.1374 -0.2124 0 0.1 0.1 0 -2.13505e-17 -6.19163e-16 -1.92154e-16 -1.28103e-16 0 0 0.000625 
207 1 207 -0.1124 -0.2374 0 0.1 0.1 0 -1.04617e-15 -4.48359e-16 -4.48359e-16 -2.98906e-16 0 0 0.000625 
208 1 208 -0.1374 -0.1874 0 0.1 0.1 0 4.9106e-16 5.76462e-16 3.20257e-16 2.13504e-16 0 0 0.000625 
209 2 209 0.1374 0.1874 0 -0.1 -0.1 0 0 0 0 0 0 0 0.000625 
210 2 210 0.1124 0.2374 0 -0.1 -0.1 0 4.9106e-16 5.76462e-16 3.20257e-16 2.13504e-16 0 0 0.000625 
211 2 211 0.1374 0.2124 0 -0.1 -0.1 0 2.77556e-16 3.62958e-16 1.92154e-16 1.28103e-16 0 0 0.000625 
212 2 212 0.1374 0.2374 0 -0.1 -0.1 0 4.27009e-16 4.27009e-16 2.56205e-16 1.70804e-16 0 0 0.000625 
213 2 213 0.1124 0.2624 0 -0.1 -0.1 0 1.06752e-16 -3.20257e-16 -6.40513e-17 -4.27009e-17 0 0 0.000625 
214 2 214 0.1124 0.2874 0 -0.1 -0.1 0 -1.92154e-16 -4.48359e-16 -1.92154e-16 -1.28103e-16 0 0 0.000625 
215 2 215 0.1374 0.2624 0 -0.1 -0.1 0 4.27009e-17 -4.6971e-16 -1.28103e-16 -8.54018e-17 0 0 0.000625 
216 2 216 0.1374 0.2874 0 -0.1 -0.1 0 -2.56205e-16 -5.97812e-16 -2.56205e-16 -1.70804e-16 0 0 0.000625 
217 2 217 0.1124 0.3124 0 -0.1 -0.1 0 3.84308e-16 4.27009e-17 1.28103e-16 8.54018e-17 0 0 0.000625 
218 2 218 0.1124 0.3374 0 -0.1 -0.1 0 2.34855e-16 -2.13504e-17 6.40513e-17 4.27009e-17 0 0 0.000625 
219 2 219 0.1374 0.3124 0 -0.1 -0.1 0 3.20257e-16 -1.06752e-16 6.40513e-17 4.27009e-17 0 0 0.000625 
220 2 220 0.1374 0.3374 0 -0.1 -0.1 0 1.70804e-16 -1.70804e-16 0 0 0 0 0.000625 
221 2 221 0.1124 0.3624 0 -0.1 -0.1 0 2.34855e-16 -2.13504e-17 6.40513e-17 4.27009e-17 0 0 0.000625 
222 2 222 0.1374 0.3624 0 -0.1 -0.1 0 4.27009e-16 4.27009e-16 2.56205e-16 1.70804e-16 0 0 0.000625 
223 2 223 0.1374 0.3874 0 -0.1 -0.1 0 7.25915e-16 5.55112e-16 3.84308e-16 2.56205e-16 0 0 0.000625 
224 2 224 0.1374 0.4124 0 -0.1 -0.1 0 1.92154e-16 -4.05658e-16 -6.40513e-17 -4.27009e-17 0 0 0.000625 
225 2 225 0.1874 0.1374 0 -0.1 -0.1 0 5.55112e-16 7.25915e-16 3.84308e-16 2.56205e-16 0 0 0.000625 
226 2 226 0.1624 0.1624 0 -0.1 -0.1 0 4.48359e-16 1.92154e-16 1.92154e-16 1.28103e-16 0 0 0.000625 
227 2 227 0.1624 0.1874 0 -0.1 -0.1 0 5.97812e-16 2.56205e-16 2.56205e-16 1.70804e-16 0 0 0.000625 
228 2 228 0.1874 0.1624 0 -0.1 -0.1 0 5.76462e-16 4.9106e-16 3.20257e-16 2.13504e-16 0 0 0.000625 
229 2 229 0.1874 0.1874 0 -0.1 -0.1 0 7.25915e-16 5.55112e-16 3.84308e-16 2.56205e-16 0 0 0.000625 
230 2 230 0.1624 0.2124 0 -0.1 -0.1 0 8.75368e-16 6.19163e-16 4.48359e-16 2.98906e-16 0 0 0.000625 
231 2 231 0.1624 0.2374 0 -0.1 -0.1 0 4.27009e-16 4.27009e-16 2.56205e-16 1.70804e-16 0 0 0.000625 
232 2 232 0.1874 0.2124 0 -0.1 -0.1 0 6.19163e-16 2.13505e-17 1.92154e-16 1.28103e-16 0 0 0.000625 
233 2 233 0.1874 0.2374 0 -0.1 -0.1 0 1.70804e-16 -1.70804e-16 0 0 0 0 0.000625 
234 2 234 0.1624 0.2624 0 -0.1 -0.1 0 3.20257e-16 -1.06752e-16 6.40513e-17 4.27009e-17 0 0 0.000625 
235 2 235 0.1624 0.2874 0 -0.1 -0.1 0 4.6971e-16 -4.27009e-17 1.28103e-16 8.54018e-17 0 0 0.000625 
236 2 236 0.1874 0.2624 0 -0.1 -0.1 0 4.48359e-16 1.92154e-16 1.92154e-16 1.28103e-16 0 0 0.000625 
237 2 237 0.1874 0.2874 0 -0.1 -0.1 0 5.97812e-16 2.56205e-16 2.56205e-16 1.70804e-16 0 0 0.000625 
238 2 238 0.1624 0.3124 0 -0.1 -0.1 0 4.05658e-16 -1.92154e-16 6.40513e-17 4.27009e-17 0 0 0.000625 
239 2 239 0.1624 0.3374 0 -0.1 -0.1 0 -1.92154e-16 -4.48359e-16 -1.92154e-16 -1.28103e-16 0 0 0.000625 
240 2 240 0.1874 0.3124 0 -0.1 -0.1 0 3.41607e-16 -3.41607e-16 0 0 0 0 0.000625 
241 2 241 0.1874 0.3374 0 -0.1 -0.1 0 -2.56205e-16 -5.97812e-16 -2.56205e-16 -1.70804e-16 0 0 0.000625 
242 2 242 0.1624 0.3624 0 -0.1 -0.1 0 1.28103e-16 2.98906e-16 1.28103e-16 8.54018e-17 0 0 0.000625 
243 2 243 0.1624 0.3874 0 -0.1 -0.1 0 1.28103e-16 2.98906e-16 1.28103e-16 8.54018e-17 0 0 0.000625 
244 2 244 0.1874 0.3624 0 -0.1 -0.1 0 0 0 0 0 0 0 0.000625 
245 2 245 0.1874 0.3874 0 -0.1 -0.1 0 0 0 0 0 0 0 0.000625 
246 2 246 0.1624 0.4124 0 -0.1 -0.1 0 -4.6971e-16 -8.11317e-16 -3.84308e-16 -2.56205e-16 0 0 0.000625 
247 2 247 0.1624 0.4374 0 -0.1 -0.1 0 -2.13505e-17 -6.19163e-16 -1.92154e-16 -1.28103e-16 0 0 0.000625 
248 2 248 0.1874 0.4124 0 -0.1 -0.1 0 -2.77556e-16 -3.62958e-16 -1.92154e-16 -1.28103e-16 0 0 0.000625 
249 2 249 0.1874 0.4374 0 -0.1 -0.1 0 1.70804e-16 -1.70804e-16 0 0 0 0 0.000625 
250 2 250 0.1874 0.4624 0 -0.1 -0.1 0 2.77556e-16 3.62958e-16 1.92154e-16 1.28103e-16 0 0 0.000625 
251 2 251 0.2124 0.1374 0 -0.1 -0.1 0 -1.06752e-16 3.20257e-16 6.40513e-17 4.27009e-17 0 0 0.000625 
252 2 252 0.2374 0.1124 0 -0.1 -0.1 0 -1.49453e-16 -6.40513e-17 -6.40513e-17 -4.27009e-17 0 0 0.000625 
253 2 253 0.2374 0.1374 0 -0.1 -0.1 0 -2.98906e-16 -1.28103e-16 -1.28103e-16 -8.54018e-17 0 0 0.000625 
254 2 254 0.2124 0.1624 0 -0.1 -0.1 0 -9.18069e-16 -1.49453e-16 -3.20257e-16 -2.13504e-16 0 0 0.000625 
255 2 255 0.2124 0.1874 0 -0.1 -0.1 0 -7.68616e-16 -8.54018e-17 -2.56205e-16 -1.70804e-16 0 0 0.000625 
256 2 256 0.2374 0.1624 0 -0.1 -0.1 0 -1.04617e-15 -4.48359e-16 -4.48359e-16 -2.98906e-16 0 0 0.000625 
257 2 257 0.2374 0.1874 0 -0.1 -0.1 0 -8.96719e-16 -3.84308e-16 -3.84308e-16 -2.56205e-16 0 0 0.000625 
258 2 258 0.2124 0.2124 0 -0.1 -0.1 0 -9.6077e-16 -5.33761e-16 -4.48359e-16 -2.98906e-16 0 0 0.000625 
259 2 259 0.2124 0.2374 0 -0.1 -0.1 0 -6.61864e-16 -4.05658e-16 -3.20257e-16 -2.13504e-16 0 0 0.000625 
260 2 260 0.2374 0.2124 0 -0.1 -0.1 0 -7.68616e-16 -8.54018e-17 -2.56205e-16 -1.70804e-16 0 0 0.000625 
261 2 261 0.2374 0.2374 0 -0.1 -0.1 0 -4.6971e-16 4.27009e-17 -1.28103e-16 -8.54018e-17 0 0 0.000625 
262 2 262 0.2124 0.2624 0 -0.1 -0.1 0 -6.83214e-16 -1.70804e-16 -2.56205e-16 -1.70804e-16 0 0 0.000625 
263 2 263 0.2124 0.2874 0 -0.1 -0.1 0 -8.32667e-16 -2.34855e-16 -3.20257e-16 -2.13504e-16 0 0 0.000625 
264 2 264 0.2374 0.2624 0 -0.1 -0.1 0 -8.75368e-16 -6.19163e-16 -4.48359e-16 -2.98906e-16 0 0 0.000625 
265 2 265 0.2374 0.2874 0 -0.1 -0.1 0 -1.02482e-15 -6.83214e-16 -5.12411e-16 -3.41607e-16 0 0 0.000625 
266 2 266 0.2124 0.3124 0 -0.1 -0.1 0 -1.08887e-15 -8.32667e-16 -5.76462e-16 -3.84308e-16 0 0 0.000625 
267 2 267 0.2124 0.3374 0 -0.1 -0.1 0 -1.92154e-16 -4.48359e-16 -1.92154e-16 -1.28103e-16 0 0 0.000625 
268 2 268 0.2374 0.3124 0 -0.1 -0.1 0 -8.96719e-16 -3.84308e-16 -3.84308e-16 -2.56205e-16 0 0 0.000625 
269 2 269 0.2374 0.3374 0 -0.1 -0.1 0 0 0 0 0 0 0 0.000625 
270 2 270 0.2124 0.3624 0 -0.1 -0.1 0 2.13504e-16 2.13504e-16 1.28103e-16 8.54018e-17 0 0 0.000625 
271 2 271 0.2124 0.3874 0 -0.1 -0.1 0 3.62958e-16 2.77556e-16 1.92154e-16 1.28103e-16 0 0 0.000625 
272 2 272 0.2374 0.3624 0 -0.1 -0.1 0 2.77556e-16 3.62958e-16 1.92154e-16 1.28103e-16 0 0 0.000625 
273 2 273 0.2374 0.3874 0 -0.1 -0.1 0 4.27009e-16 4.27009e-16 2.56205e-16 1.70804e-16 0 0 0.000625 
274 2 274 0.2124 0.4124 0 -0.1 -0.1 0 1.06752e-16 -3.20257e-16 -6.40513e-17 -4.27009e-17 0 0 0.000625 
275 2 275 0.2124 0.4374 0 -0.1 -0.1 0 -1.92154e-16 -4.48359e-16 -1.92154e-16 -1.28103e-16 0 0 0.000625 
276 2 276 0.2374 0.4124 0 -0.1 -0.1 0 4.27009e-17 -4.6971e-16 -1.28103e-16 -8.54018e-17 0 0 0.000625 
277 2 277 0.2374 0.4374 0 -0.1 -0.1 0 -2.56205e-16 -5.97812e-16 -2.56205e-16 -1.70804e-16 0 0 0.000625 
278 2 278 0.2124 0.4624 0 -0.1 -0.1 0 5.97812e-16 2.56205e-16 2.56205e-16 1.70804e-16 0 0 0.000625 
279 2 279 0.2374 0.4624 0 -0.1 -0.1 0 5.97812e-16 2.56205e-16 2.56205e-16 1.70804e-16 0 0 0.000625 
280 2 280 0.2374 0.4874 0 -0.1 -0.1 0 5.97812e-16 2.56205e-16 2.56205e-16 1.70804e-16 0 0 0.000625 
281 2 281 0.2624 0.1124 0 -0.1 -0.1 0 -3.62958e-16 -2.77556e-16 -1.92154e-16 -1.28103e-16 0 0 0.000625 
282 2 282 0.2624 0.1374 0 -0.1 -0.1 0 -6.40513e-17 -1.49453e-16 -6.40513e-17 -4.27009e-17 0 0 0.000625 
283 2 283 0.2874 0.1124 0 -0.1 -0.1 0 -2.98906e-16 -1.28103e-16 -1.28103e-16 -8.54018e-17 0 0 0.000625 
284 2 284 0.2874 0.1374 0 -0.1 -0.1 0 0 0 0 0 0 0 0.000625 
285 2 285 0.2624 0.1624 0 -0.1 -0.1 0 8.11317e-16 4.6971e-16 3.84308e-16 2.56205e-16 0 0 0.000625 
286 2 286 0.2624 0.1874 0 -0.1 -0.1 0 1.25968e-15 6.61864e-16 5.76462e-16 3.84308e-16 0 0 0.000625 
287 2 287 0.2874 0.1624 0 -0.1 -0.1 0 1.00347e-15 9.18069e-16 5.76462e-16 3.84308e-16 0 0 0.000625 
288 2 288 0.2874 0.1874 0 -0.1 -0.1 0 1.45183e-15 1.11022e-15 7.68616e-16 5.12411e-16 0 0 0.000625 
289 2 289 0.2624 0.2124 0 -0.1 -0.1 0 6.61864e-16 4.05658e-16 3.20257e-16 2.13504e-16 0 0 0.000625 
290 2 290 0.2624 0.2374 0 -0.1 -0.1 0 6.40513e-17 1.49453e-16 6.40513e-17 4.27009e-17 0 0 0.000625 
291 2 291 0.2874 0.2124 0 -0.1 -0.1 0 3.41607e-16 -3.41607e-16 0 0 0 0 0.000625 
292 2 292 0.2874 0.2374 0 -0.1 -0.1 0 -2.56205e-16 -5.97812e-16 -2.56205e-16 -1.70804e-16 0 0 0.000625 
293 2 293 0.2624 0.2624 0 -0.1 -0.1 0 8.54018e-17 -8.54018e-17 0 0 0 0 0.000625 
294 2 294 0.2624 0.2874 0 -0.1 -0.1 0 2.34855e-16 -2.13504e-17 6.40513e-17 4.27009e-17 0 0 0.000625 
295 2 295 0.2874 0.2624 0 -0.1 -0.1 0 2.77556e-16 3.62958e-16 1.92154e-16 1.28103e-16 0 0 0.000625 
296 2 296 0.2874 0.2874 0 -0.1 -0.1 0 4.27009e-16 4.27009e-16 2.56205e-16 1.70804e-16 0 0 0.000625 
297 2 297 0.2624 0.3124 0 -0.1 -0.1 0 5.76462e-16 4.9106e-16 3.20257e-16 2.13504e-16 0 0 0.000625 
298 2 298 0.2624 0.3374 0 -0.1 -0.1 0 7.25915e-16 5.55112e-16 3.84308e-16 2.56205e-16 0 0 0.000625 
299 2 299 0.2874 0.3124 0 -0.1 -0.1 0 7.04565e-16 7.89966e-16 4.48359e-16 2.98906e-16 0 0 0.000625 
300 2 300 0.2874 0.3374 0 -0.1 -0.1 0 8.54018e-16 8.54018e-16 5.12411e-16 3.41607e-16 0 0 0.000625 
301 2 301 0.2624 0.3624 0 -0.1 -0.1 0 6.61864e-16 4.05658e-16 3.20257e-16 2.13504e-16 0 0 0.000625 
302 2 302 0.2624 0.3874 0 -0.1 -0.1 0 6.40513e-17 1.49453e-16 6.40513e-17 4.27009e-17 0 0 0.000625 