ITEM: TIMESTEP
0
ITEM: NUMBER OF ATOMS
416
ITEM: BOX BOUNDS sm sm sm
-0.5 0.5
-0.5 0.5
0 0
ITEM: ATOMS id type tag x y z vx vy vz s11 s22 s33 s12 s13 s23 volume mass 
1 1 1 -0.4625 -0.4125 0 0 0 0 0 0 0 0 0 0 0.000625 0.625 
2 1 2 -0.4875 -0.3625 0 0 0 0 0 0 0 0 0 0 0.000625 0.625 
3 1 3 -0.4625 -0.3875 0 0 0 0 0 0 0 0 0 0 0.000625 0.625 
4 1 4 -0.4625 -0.3625 0 0 0 0 0 0 0 0 0 0 0.000625 0.625 
5 1 5 -0.4875 -0.3375 0 0 0 0 0 0 0 0 0 0 0.000625 0.625 
6 1 6 -0.4875 -0.3125 0 0 0 0 0 0 0 0 0 0 0.000625 0.625 
7 1 7 -0.4625 -0.3375 0 0 0 0 0 0 0 0 0 0 0.000625 0.625 
8 1 8 -0.4625 -0.3125 0 0 0 0 0 0 0 0 0 0 0.000625 0.625 
9 1 9 -0.4875 -0.2875 0 0 0 0 0 0 0 0 0 0 0.000625 0.625 
10 1 10 -0.4875 -0.2625 0 0 0 0 0 0 0 0 0 0 0.000625 0.625 
11 1 11 -0.4625 -0.2875 0 0 0 0 0 0 0 0 0 0 0.000625 0.625 
12 1 12 -0.4625 -0.2625 0 0 0 0 0 0 0 0 0 0 0.000625 0.625 
13 1 13 -0.4875 -0.2375 0 0 0 0 0 0 0 0 0 0 0.000625 0.625 
14 1 14 -0.4625 -0.2375 0 0 0 0 0 0 0 0 0 0 0.000625 0.625 
15 1 15 -0.4625 -0.2125 0 0 0 0 0 0 0 0 0 0 0.000625 0.625 
16 1 16 -0.4625 -0.1875 0 0 0 0 0 0 0 0 0 0 0.000625 0.625 
17 1 17 -0.4125 -0.4625 0 0 0 0 0 0 0 0 0 0 0.000625 0.625 
18 1 18 -0.4375 -0.4375 0 0 0 0 0 0 0 0 0 0 0.000625 0.625 
19 1 19 -0.4375 -0.4125 0 0 0 0 0 0 0 0 0 0 0.000625 0.625 
20 1 20 -0.4125 -0.4375 0 0 0 0 0 0 0 0 0 0 0.000625 0.625 
21 1 21 -0.4125 -0.4125 0 0 0 0 0 0 0 0 0 0 0.000625 0.625 
22 1 22 -0.4375 -0.3875 0 0 0 0 0 0 0 0 0 0 0.000625 0.625 
23 1 23 -0.4375 -0.3625 0 0 0 0 0 0 0 0 0 0 0.000625 0.625 
24 1 24 -0.4125 -0.3875 0 0 0 0 0 0 0 0 0 0 0.000625 0.625 
25 1 25 -0.4125 -0.3625 0 0 0 0 0 0 0 0 0 0 0.000625 0.625 
26 1 26 -0.4375 -0.3375 0 0 0 0 0 0 0 0 0 0 0.000625 0.625 
27 1 27 -0.4375 -0.3125 0 0 0 0 0 0 0 0 0 0 0.000625 0.625 
28 1 28 -0.4125 -0.3375 0 0 0 0 0 0 0 0 0 0 0.000625 0.625 
29 1 29 -0.4125 -0.3125 0 0 0 0 0 0 0 0 0 0 0.000625 0.625 
30 1 30 -0.4375 -0.2875 0 0 0 0 0 0 0 0 0 0 0.000625 0.625 
31 1 31 -0.4375 -0.2625 0 0 0 0 0 0 0 0 0 0 0.000625 0.625 
32 1 32 -0.4125 -0.2875 0 0 0 0 0 0 0 0 0 0 0.000625 0.625 
33 1 33 -0.4125 -0.2625 0 0 0 0 0 0 0 0 0 0 0.000625 0.625 
34 1 34 -0.4375 -0.2375 0 0 0 0 0 0 0 0 0 0 0.000625 0.625 
35 1 35 -0.4375 -0.2125 0 0 0 0 0 0 0 0 0 0 0.000625 0.625 
36 1 36 -0.4125 -0.2375 0 0 0 0 0 0 0 0 0 0 0.000625 0.625 
37 1 37 -0.4125 -0.2125 0 0 0 0 0 0 0 0 0 0 0.000625 0.625 
38 1 38 -0.4375 -0.1875 0 0 0 0 0 0 0 0 0 0 0.000625 0.625 
39 1 39 -0.4375 -0.1625 0 0 0 0 0 0 0 0 0 0 0.000625 0.625 
40 1 40 -0.4125 -0.1875 0 0 0 0 0 0 0 0 0 0 0.000625 0.625 
41 1 41 -0.4125 -0.1625 0 0 0 0 0 0 0 0 0 0 0.000625 0.625 
42 1 42 -0.4125 -0.1375 0 0 0 0 0 0 0 0 0 0 0.000625 0.625 
43 1 43 -0.3875 -0.4625 0 0 0 0 0 0 0 0 0 0 0.000625 0.625 
44 1 44 -0.3625 -0.4875 0 0 0 0 0 0 0 0 0 0 0.000625 0.625 
45 1 45 -0.3625 -0.4625 0 0 0 0 0 0 0 0 0 0 0.000625 0.625 
46 1 46 -0.3875 -0.4375 0 0 0 0 0 0 0 0 0 0 0.000625 0.625 
47 1 47 -0.3875 -0.4125 0 0 0 0 0 0 0 0 0 0 0.000625 0.625 
48 1 48 -0.3625 -0.4375 0 0 0 0 0 0 0 0 0 0 0.000625 0.625 
49 1 49 -0.3625 -0.4125 0 0 0 0 0 0 0 0 0 0 0.000625 0.625 
50 1 50 -0.3875 -0.3875 0 0 0 0 0 0 0 0 0 0 0.000625 0.625 
51 1 51 -0.3875 -0.3625 0 0 0 0 0 0 0 0 0 0 0.000625 0.625 
52 1 52 -0.3625 -0.3875 0 0 0 0 0 0 0 0 0 0 0.000625 0.625 
53 1 53 -0.3625 -0.3625 0 0 0 0 0 0 0 0 0 0 0.000625 0.625 
54 1 54 -0.3875 -0.3375 0 0 0 0 0 0 0 0 0 0 0.000625 0.625 
55 1 55 -0.3875 -0.3125 0 0 0 0 0 0 0 0 0 0 0.000625 0.625 
56 1 56 -0.3625 -0.3375 0 0 0 0 0 0 0 0 0 0 0.000625 0.625 
57 1 57 -0.3625 -0.3125 0 0 0 0 0 0 0 0 0 0 0.000625 0.625 
58 1 58 -0.3875 -0.2875 0 0 0 0 0 0 0 0 0 0 0.000625 0.625 
59 1 59 -0.3875 -0.2625 0 0 0 0 0 0 0 0 0 0 0.000625 0.625 
60 1 60 -0.3625 -0.2875 0 0 0 0 0 0 0 0 0 0 0.000625 0.625 
61 1 61 -0.3625 -0.2625 0 0 0 0 0 0 0 0 0 0 0.000625 0.625 
62 1 62 -0.3875 -0.2375 0 0 0 0 0 0 0 0 0 0 0.000625 0.625 
63 1 63 -0.3875 -0.2125 0 0 0 0 0 0 0 0 0 0 0.000625 0.625 
64 1 64 -0.3625 -0.2375 0 0 0 0 0 0 0 0 0 0 0.000625 0.625 
65 1 65 -0.3625 -0.2125 0 0 0 0 0 0 0 0 0 0 0.000625 0.625 
66 1 66 -0.3875 -0.1875 0 0 0 0 0 0 0 0 0 0 0.000625 0.625 
67 1 67 -0.3875 -0.1625 0 0 0 0 0 0 0 0 0 0 0.000625 0.625 
68 1 68 -0.3625 -0.1875 0 0 0 0 0 0 0 0 0 0 0.000625 0.625 
69 1 69 -0.3625 -0.1625 0 0 0 0 0 0 0 0 0 0 0.000625 0.625 
70 1 70 -0.3875 -0.1375 0 0 0 0 0 0 0 0 0 0 0.000625 0.625 
71 1 71 -0.3625 -0.1375 0 0 0 0 0 0 0 0 0 0 0.000625 0.625 
72 1 72 -0.3625 -0.1125 0 0 0 0 0 0 0 0 0 0 0.000625 0.625 
73 1 73 -0.3375 -0.4875 0 0 0 0 0 0 0 0 0 0 0.000625 0.625 
74 1 74 -0.3375 -0.4625 0 0 0 0 0 0 0 0 0 0 0.000625 0.625 
75 1 75 -0.3125 -0.4875 0 0 0 0 0 0 0 0 0 0 0.000625 0.625 
76 1 76 -0.3125 -0.4625 0 0 0 0 0 0 0 0 0 0 0.000625 0.625 
77 1 77 -0.3375 -0.4375 0 0 0 0 0 0 0 0 0 0 0.000625 0.625 
78 1 78 -0.3375 -0.4125 0 0 0 0 0 0 0 0 0 0 0.000625 0.625 
79 1 79 -0.3125 -0.4375 0 0 0 0 0 0 0 0 0 0 0.000625 0.625 
80 1 80 -0.3125 -0.4125 0 0 0 0 0 0 0 0 0 0 0.000625 0.625 
81 1 81 -0.3375 -0.3875 0 0 0 0 0 0 0 0 0 0 0.000625 0.625 
82 1 82 -0.3375 -0.3625 0 0 0 0 0 0 0 0 0 0 0.000625 0.625 
83 1 83 -0.3125 -0.3875 0 0 0 0 0 0 0 0 0 0 0.000625 0.625 
84 1 84 -0.3125 -0.3625 0 0 0 0 0 0 0 0 0 0 0.000625 0.625 
85 1 85 -0.3375 -0.3375 0 0 0 0 0 0 0 0 0 0 0.000625 0.625 
86 1 86 -0.3375 -0.3125 0 0 0 0 0 0 0 0 0 0 0.000625 0.625 
87 1 87 -0.3125 -0.3375 0 0 0 0 0 0 0 0 0 0 0.000625 0.625 
88 1 88 -0.3125 -0.3125 0 0 0 0 0 0 0 0 0 0 0.000625 0.625 
89 1 89 -0.3375 -0.2875 0 0 0 0 0 0 0 0 0 0 0.000625 0.625 
90 1 90 -0.3375 -0.2625 0 0 0 0 0 0 0 0 0 0 0.000625 0.625 
91 1 91 -0.3125 -0.2875 0 0 0 0 0 0 0 0 0 0 0.000625 0.625 
92 1 92 -0.3125 -0.2625 0 0 0 0 0 0 0 0 0 0 0.000625 0.625 
93 1 93 -0.3375 -0.2375 0 0 0 0 0 0 0 0 0 0 0.000625 0.625 
94 1 94 -0.3375 -0.2125 0 0 0 0 0 0 0 0 0 0 0.000625 0.625 
95 1 95 -0.3125 -0.2375 0 0 0 0 0 0 0 0 0 0 0.000625 0.625 
96 1 96 -0.3125 -0.2125 0 0 0 0 0 0 0 0 0 0 0.000625 0.625 
97 1 97 -0.3375 -0.1875 0 0 0 0 0 0 0 0 0 0 0.000625 0.625 
98 1 98 -0.3375 -0.1625 0 0 0 0 0 0 0 0 0 0 0.000625 0.625 
99 1 99 -0.3125 -0.1875 0 0 0 0 0 0 0 0 0 0 0.000625 0.625 
100 1 100 -0.3125 -0.1625 0 0 0 0 0 0 0 0 0 0 0.000625 0.625 
101 1 101 -0.3375 -0.1375 0 0 0 0 0 0 0 0 0 0 0.000625 0.625 
102 1 102 -0.3375 -0.1125 0 0 0 0 0 0 0 0 0 0 0.000625 0.625 
103 1 103 -0.3125 -0.1375 0 0 0 0 0 0 0 0 0 0 0.000625 0.625 
104 1 104 -0.3125 -0.1125 0 0 0 0 0 0 0 0 0 0 0.000625 0.625 
105 1 105 -0.2875 -0.4875 0 0 0 0 0 0 0 0 0 0 0.000625 0.625 
106 1 106 -0.2875 -0.4625 0 0 0 0 0 0 0 0 0 0 0.000625 0.625 
107 1 107 -0.2625 -0.4875 0 0 0 0 0 0 0 0 0 0 0.000625 0.625 
108 1 108 -0.2625 -0.4625 0 0 0 0 0 0 0 0 0 0 0.000625 0.625 
109 1 109 -0.2875 -0.4375 0 0 0 0 0 0 0 0 0 0 0.000625 0.625 
110 1 110 -0.2875 -0.4125 0 0 0 0 0 0 0 0 0 0 0.000625 0.625 
111 1 111 -0.2625 -0.4375 0 0 0 0 0 0 0 0 0 0 0.000625 0.625 
112 1 112 -0.2625 -0.4125 0 0 0 0 0 0 0 0 0 0 0.000625 0.625 
113 1 113 -0.2875 -0.3875 0 0 0 0 0 0 0 0 0 0 0.000625 0.625 
114 1 114 -0.2875 -0.3625 0 0 0 0 0 0 0 0 0 0 0.000625 0.625 
115 1 115 -0.2625 -0.3875 0 0 0 0 0 0 0 0 0 0 0.000625 0.625 
116 1 116 -0.2625 -0.3625 0 0 0 0 0 0 0 0 0 0 0.000625 0.625 
117 1 117 -0.2875 -0.3375 0 0 0 0 0 0 0 0 0 0 0.000625 0.625 
118 1 118 -0.2875 -0.3125 0 0 0 0 0 0 0 0 0 0 0.000625 0.625 
119 1 119 -0.2625 -0.3375 0 0 0 0 0 0 0 0 0 0 0.000625 0.625 
120 1 120 -0.2625 -0.3125 0 0 0 0 0 0 0 0 0 0 0.000625 0.625 
121 1 121 -0.2875 -0.2875 0 0 0 0 0 0 0 0 0 0 0.000625 0.625 
122 1 122 -0.2875 -0.2625 0 0 0 0 0 0 0 0 0 0 0.000625 0.625 
123 1 123 -0.2625 -0.2875 0 0 0 0 0 0 0 0 0 0 0.000625 0.625 
124 1 124 -0.2625 -0.2625 0 0 0 0 0 0 0 0 0 0 0.000625 0.625 
125 1 125 -0.2875 -0.2375 0 0 0 0 0 0 0 0 0 0 0.000625 0.625 
126 1 126 -0.2875 -0.2125 0 0 0 0 0 0 0 0 0 0 0.000625 0.625 
127 1 127 -0.2625 -0.2375 0 0 0 0 0 0 0 0 0 0 0.000625 0.625 
128 1 128 -0.2625 -0.2125 0 0 0 0 0 0 0 0 0 0 0.000625 0.625 
129 1 129 -0.2875 -0.1875 0 0 0 0 0 0 0 0 0 0 0.000625 0.625 
130 1 130 -0.2875 -0.1625 0 0 0 0 0 0 0 0 0 0 0.000625 0.625 
131 1 131 -0.2625 -0.1875 0 0 0 0 0 0 0 0 0 0 0.000625 0.625 
132 1 132 -0.2625 -0.1625 0 0 0 0 0 0 0 0 0 0 0.000625 0.625 
133 1 133 -0.2875 -0.1375 0 0 0 0 0 0 0 0 0 0 0.000625 0.625 
134 1 134 -0.2875 -0.1125 0 0 0 0 0 0 0 0 0 0 0.000625 0.625 
135 1 135 -0.2625 -0.1375 0 0 0 0 0 0 0 0 0 0 0.000625 0.625 
136 1 136 -0.2625 -0.1125 0 0 0 0 0 0 0 0 0 0 0.000625 0.625 
137 1 137 -0.2375 -0.4875 0 0 0 0 0 0 0 0 0 0 0.000625 0.625 
138 1 138 -0.2375 -0.4625 0 0 0 0 0 0 0 0 0 0 0.000625 0.625 
139 1 139 -0.2125 -0.4625 0 0 0 0 0 0 0 0 0 0 0.000625 0.625 
140 1 140 -0.2375 -0.4375 0 0 0 0 0 0 0 0 0 0 0.000625 0.625 
141 1 141 -0.2375 -0.4125 0 0 0 0 0 0 0 0 0 0 0.000625 0.625 
142 1 142 -0.2125 -0.4375 0 0 0 0 0 0 0 0 0 0 0.000625 0.625 
143 1 143 -0.2125 -0.4125 0 0 0 0 0 0 0 0 0 0 0.000625 0.625 
144 1 144 -0.2375 -0.3875 0 0 0 0 0 0 0 0 0 0 0.000625 0.625 
145 1 145 -0.2375 -0.3625 0 0 0 0 0 0 0 0 0 0 0.000625 0.625 
146 1 146 -0.2125 -0.3875 0 0 0 0 0 0 0 0 0 0 0.000625 0.625 
147 1 147 -0.2125 -0.3625 0 0 0 0 0 0 0 0 0 0 0.000625 0.625 
148 1 148 -0.2375 -0.3375 0 0 0 0 0 0 0 0 0 0 0.000625 0.625 
149 1 149 -0.2375 -0.3125 0 0 0 0 0 0 0 0 0 0 0.000625 0.625 
150 1 150 -0.2125 -0.3375 0 0 0 0 0 0 0 0 0 0 0.000625 0.625 
151 1 151 -0.2125 -0.3125 0 0 0 0 0 0 0 0 0 0 0.000625 0.625 
152 1 152 -0.2375 -0.2875 0 0 0 0 0 0 0 0 0 0 0.000625 0.625 
153 1 153 -0.2375 -0.2625 0 0 0 0 0 0 0 0 0 0 0.000625 0.625 
154 1 154 -0.2125 -0.2875 0 0 0 0 0 0 0 0 0 0 0.000625 0.625 
155 1 155 -0.2125 -0.2625 0 0 0 0 0 0 0 0 0 0 0.000625 0.625 
156 1 156 -0.2375 -0.2375 0 0 0 0 0 0 0 0 0 0 0.000625 0.625 
157 1 157 -0.2375 -0.2125 0 0 0 0 0 0 0 0 0 0 0.000625 0.625 
158 1 158 -0.2125 -0.2375 0 0 0 0 0 0 0 0 0 0 0.000625 0.625 
159 1 159 -0.2125 -0.2125 0 0 0 0 0 0 0 0 0 0 0.000625 0.625 
160 1 160 -0.2375 -0.1875 0 0 0 0 0 0 0 0 0 0 0.000625 0.625 
161 1 161 -0.2375 -0.1625 0 0 0 0 0 0 0 0 0 0 0.000625 0.625 
162 1 162 -0.2125 -0.1875 0 0 0 0 0 0 0 0 0 0 0.000625 0.625 
163 1 163 -0.2125 -0.1625 0 0 0 0 0 0 0 0 0 0 0.000625 0.625 
164 1 164 -0.2375 -0.1375 0 0 0 0 0 0 0 0 0 0 0.000625 0.625 
165 1 165 -0.2375 -0.1125 0 0 0 0 0 0 0 0 0 0 0.000625 0.625 
166 1 166 -0.2125 -0.1375 0 0 0 0 0 0 0 0 0 0 0.000625 0.625 
167 1 167 -0.1875 -0.4625 0 0 0 0 0 0 0 0 0 0 0.000625 0.625 
168 1 168 -0.1875 -0.4375 0 0 0 0 0 0 0 0 0 0 0.000625 0.625 
169 1 169 -0.1875 -0.4125 0 0 0 0 0 0 0 0 0 0 0.000625 0.625 
170 1 170 -0.1625 -0.4375 0 0 0 0 0 0 0 0 0 0 0.000625 0.625 
171 1 171 -0.1625 -0.4125 0 0 0 0 0 0 0 0 0 0 0.000625 0.625 
172 1 172 -0.1875 -0.3875 0 0 0 0 0 0 0 0 0 0 0.000625 0.625 
173 1 173 -0.1875 -0.3625 0 0 0 0 0 0 0 0 0 0 0.000625 0.625 
174 1 174 -0.1625 -0.3875 0 0 0 0 0 0 0 0 0 0 0.000625 0.625 
175 1 175 -0.1625 -0.3625 0 0 0 0 0 0 0 0 0 0 0.000625 0.625 
176 1 176 -0.1875 -0.3375 0 0 0 0 0 0 0 0 0 0 0.000625 0.625 
177 1 177 -0.1875 -0.3125 0 0 0 0 0 0 0 0 0 0 0.000625 0.625 
178 1 178 -0.1625 -0.3375 0 0 0 0 0 0 0 0 0 0 0.000625 0.625 
179 1 179 -0.1625 -0.3125 0 0 0 0 0 0 0 0 0 0 0.000625 0.625 
180 1 180 -0.1875 -0.2875 0 0 0 0 0 0 0 0 0 0 0.000625 0.625 
181 1 181 -0.1875 -0.2625 0 0 0 0 0 0 0 0 0 0 0.000625 0.625 
182 1 182 -0.1625 -0.2875 0 0 0 0 0 0 0 0 0 0 0.000625 0.625 
183 1 183 -0.1625 -0.2625 0 0 0 0 0 0 0 0 0 0 0.000625 0.625 
184 1 184 -0.1875 -0.2375 0 0 0 0 0 0 0 0 0 0 0.000625 0.625 
185 1 185 -0.1875 -0.2125 0 0 0 0 0 0 0 0 0 0 0.000625 0.625 
186 1 186 -0.1625 -0.2375 0 0 0 0 0 0 0 0 0 0 0.000625 0.625 
187 1 187 -0.1625 -0.2125 0 0 0 0 0 0 0 0 0 0 0.000625 0.625 
188 1 188 -0.1875 -0.1875 0 0 0 0 0 0 0 0 0 0 0.000625 0.625 
189 1 189 -0.1875 -0.1625 0 0 0 0 0 0 0 0 0 0 0.000625 0.625 
190 1 190 -0.1625 -0.1875 0 0 0 0 0 0 0 0 0 0 0.000625 0.625 
191 1 191 -0.1625 -0.1625 0 0 0 0 0 0 0 0 0 0 0.000625 0.625 
192 1 192 -0.1875 -0.1375 0 0 0 0 0 0 0 0 0 0 0.000625 0.625 
193 1 193 -0.1375 -0.4125 0 0 0 0 0 0 0 0 0 0 0.000625 0.625 
194 1 194 -0.1375 -0.3875 0 0 0 0 0 0 0 0 0 0 0.000625 0.625 
195 1 195 -0.1375 -0.3625 0 0 0 0 0 0 0 0 0 0 0.000625 0.625 
196 1 196 -0.1125 -0.3625 0 0 0 0 0 0 0 0 0 0 0.000625 0.625 
197 1 197 -0.1375 -0.3375 0 0 0 0 0 0 0 0 0 0 0.000625 0.625 
198 1 198 -0.1375 -0.3125 0 0 0 0 0 0 0 0 0 0 0.000625 0.625 
199 1 199 -0.1125 -0.3375 0 0 0 0 0 0 0 0 0 0 0.000625 0.625 
200 1 200 -0.1125 -0.3125 0 0 0 0 0 0 0 0 0 0 0.000625 0.625 
201 1 201 -0.1375 -0.2875 0 0 0 0 0 0 0 0 0 0 0.000625 0.625 
202 1 202 -0.1375 -0.2625 0 0 0 0 0 0 0 0 0 0 0.000625 0.625 
203 1 203 -0.1125 -0.2875 0 0 0 0 0 0 0 0 0 0 0.000625 0.625 
204 1 204 -0.1125 -0.2625 0 0 0 0 0 0 0 0 0 0 0.000625 0.625 
205 1 205 -0.1375 -0.2375 0 0 0 0 0 0 0 0 0 0 0.000625 0.625 
206 1 206 -0.1375 -0.2125 0 0 0 0 0 0 0 0 0 0 0.000625 0.625 
207 1 207 -0.1125 -0.2375 0 0 0 0 0 0 0 0 0 0 0.000625 0.625 
208 1 208 -0.1375 -0.1875 0 0 0 0 0 0 0 0 0 0 0.000625 0.625 
209 2 209 0.1375 0.1875 0 0 0 0 0 0 0 0 0 0 0.000625 0.625 
210 2 210 0.1125 0.2375 0 0 0 0 0 0 0 0 0 0 0.000625 0.625 
211 2 211 0.1375 0.2125 0 0 0 0 0 0 0 0 0 0 0.000625 0.625 
212 2 212 0.1375 0.2375 0 0 0 0 0 0 0 0 0 0 0.000625 0.625 
213 2 213 0.1125 0.2625 0 0 0 0 0 0 0 0 0 0 0.000625 0.625 
214 2 214 0.1125 0.2875 0 0 0 0 0 0 0 0 0 0 0.000625 0.625 
215 2 215 0.1375 0.2625 0 0 0 0 0 0 0 0 0 0 0.000625 0.625 
216 2 216 0.1375 0.2875 0 0 0 0 0 0 0 0 0 0 0.000625 0.625 
217 2 217 0.1125 0.3125 0 0 0 0 0 0 0 0 0 0 0.000625 0.625 
218 2 218 0.1125 0.3375 0 0 0 0 0 0 0 0 0 0 0.000625 0.625 
219 2 219 0.1375 0.3125 0 0 0 0 0 0 0 0 0 0 0.000625 0.625 
220 2 220 0.1375 0.3375 0 0 0 0 0 0 0 0 0 0 0.000625 0.625 
221 2 221 0.1125 0.3625 0 0 0 0 0 0 0 0 0 0 0.000625 0.625 
222 2 222 0.1375 0.3625 0 0 0 0 0 0 0 0 0 0 0.000625 0.625 
223 2 223 0.1375 0.3875 0 0 0 0 0 0 0 0 0 0 0.000625 0.625 
224 2 224 0.1375 0.4125 0 0 0 0 0 0 0 0 0 0 0.000625 0.625 
225 2 225 0.1875 0.1375 0 0 0 0 0 0 0 0 0 0 0.000625 0.625 
226 2 226 0.1625 0.1625 0 0 0 0 0 0 0 0 0 0 0.000625 0.625 
227 2 227 0.1625 0.1875 0 0 0 0 0 0 0 0 0 0 0.000625 0.625 
228 2 228 0.1875 0.1625 0 0 0 0 0 0 0 0 0 0 0.000625 0.625 
229 2 229 0.1875 0.1875 0 0 0 0 0 0 0 0 0 0 0.000625 0.625 
230 2 230 0.1625 0.2125 0 0 0 0 0 0 0/home/dennis/Bachelorarbeit/karamelo_cpt/Tests/output/particles/dump_p.0.dat 0 0 0 0.000625 0.625 
231 2 231 0.1625 0.2375 0 0 0 0 0 0 0 0 0 0 0.000625 0.625 
232 2 232 0.1875 0.2125 0 0 0 0 0 0 0 0 0 0 0.000625 0.625 
233 2 233 0.1875 0.2375 0 0 0 0 0 0 0 0 0 0 0.000625 0.625 
234 2 234 0.1625 0.2625 0 0 0 0 0 0 0 0 0 0 0.000625 0.625 
235 2 235 0.1625 0.2875 0 0 0 0 0 0 0 0 0 0 0.000625 0.625 
236 2 236 0.1875 0.2625 0 0 0 0 0 0 0 0 0 0 0.000625 0.625 
237 2 237 0.1875 0.2875 0 0 0 0 0 0 0 0 0 0 0.000625 0.625 
238 2 238 0.1625 0.3125 0 0 0 0 0 0 0 0 0 0 0.000625 0.625 
239 2 239 0.1625 0.3375 0 0 0 0 0 0 0 0 0 0 0.000625 0.625 
240 2 240 0.1875 0.3125 0 0 0 0 0 0 0 0 0 0 0.000625 0.625 
241 2 241 0.1875 0.3375 0 0 0 0 0 0 0 0 0 0 0.000625 0.625 
242 2 242 0.1625 0.3625 0 0 0 0 0 0 0 0 0 0 0.000625 0.625 
243 2 243 0.1625 0.3875 0 0 0 0 0 0 0 0 0 0 0.000625 0.625 
244 2 244 0.1875 0.3625 0 0 0 0 0 0 0 0 0 0 0.000625 0.625 
245 2 245 0.1875 0.3875 0 0 0 0 0 0 0 0 0 0 0.000625 0.625 
246 2 246 0.1625 0.4125 0 0 0 0 0 0 0 0 0 0 0.000625 0.625 
247 2 247 0.1625 0.4375 0 0 0 0 0 0 0 0 0 0 0.000625 0.625 
248 2 248 0.1875 0.4125 0 0 0 0 0 0 0 0 0 0 0.000625 0.625 
249 2 249 0.1875 0.4375 0 0 0 0 0 0 0 0 0 0 0.000625 0.625 
250 2 250 0.1875 0.4625 0 0 0 0 0 0 0 0 0 0 0.000625 0.625 
251 2 251 0.2125 0.1375 0 0 0 0 0 0 0 0 0 0 0.000625 0.625 
252 2 252 0.2375 0.1125 0 0 0 0 0 0 0 0 0 0 0.000625 0.625 
253 2 253 0.2375 0.1375 0 0 0 0 0 0 0 0 0 0 0.000625 0.625 
254 2 254 0.2125 0.1625 0 0 0 0 0 0 0 0 0 0 0.000625 0.625 
255 2 255 0.2125 0.1875 0 0 0 0 0 0 0 0 0 0 0.000625 0.625 
256 2 256 0.2375 0.1625 0 0 0 0 0 0 0 0 0 0 0.000625 0.625 
257 2 257 0.2375 0.1875 0 0 0 0 0 0 0 0 0 0 0.000625 0.625 
258 2 258 0.2125 0.2125 0 0 0 0 0 0 0 0 0 0 0.000625 0.625 
259 2 259 0.2125 0.2375 0 0 0 0 0 0 0 0 0 0 0.000625 0.625 
260 2 260 0.2375 0.2125 0 0 0 0 0 0 0 0 0 0 0.000625 0.625 
261 2 261 0.2375 0.2375 0 0 0 0 0 0 0 0 0 0 0.000625 0.625 
262 2 262 0.2125 0.2625 0 0 0 0 0 0 0 0 0 0 0.000625 0.625 
263 2 263 0.2125 0.2875 0 0 0 0 0 0 0 0 0 0 0.000625 0.625 
264 2 264 0.2375 0.2625 0 0 0 0 0 0 0 0 0 0 0.000625 0.625 
265 2 265 0.2375 0.2875 0 0 0 0 0 0 0 0 0 0 0.000625 0.625 
266 2 266 0.2125 0.3125 0 0 0 0 0 0 0 0 0 0 0.000625 0.625 
267 2 267 0.2125 0.3375 0 0 0 0 0 0 0 0 0 0 0.000625 0.625 
268 2 268 0.2375 0.3125 0 0 0 0 0 0 0 0 0 0 0.000625 0.625 
269 2 269 0.2375 0.3375 0 0 0 0 0 0 0 0 0 0 0.000625 0.625 
270 2 270 0.2125 0.3625 0 0 0 0 0 0 0 0 0 0 0.000625 0.625 
271 2 271 0.2125 0.3875 0 0 0 0 0 0 0 0 0 0 0.000625 0.625 
272 2 272 0.2375 0.3625 0 0 0 0 0 0 0 0 0 0 0.000625 0.625 
273 2 273 0.2375 0.3875 0 0 0 0 0 0 0 0 0 0 0.000625 0.625 
274 2 274 0.2125 0.4125 0 0 0 0 0 0 0 0 0 0 0.000625 0.625 
275 2 275 0.2125 0.4375 0 0 0 0 0 0 0 0 0 0 0.000625 0.625 
276 2 276 0.2375 0.4125 0 0 0 0 0 0 0 0 0 0 0.000625 0.625 
277 2 277 0.2375 0.4375 0 0 0 0 0 0 0 0 0 0 0.000625 0.625 
278 2 278 0.2125 0.4625 0 0 0 0 0 0 0 0 0 0 0.000625 0.625 
279 2 279 0.2375 0.4625 0 0 0 0 0 0 0 0 0 0 0.000625 0.625 
280 2 280 0.2375 0.4875 0 0 0 0 0 0 0 0 0 0 0.000625 0.625 
281 2 281 0.2625 0.1125 0 0 0 0 0 0 0 0 0 0 0.000625 0.625 
282 2 282 0.2625 0.1375 0 0 0 0 0 0 0 0 0 0 0.000625 0.625 
283 2 283 0.2875 0.1125 0 0 0 0 0 0 0 0 0 0 0.000625 0.625 
284 2 284 0.2875 0.1375 0 0 0 0 0 0 0 0 0 0 0.000625 0.625 
285 2 285 0.2625 0.1625 0 0 0 0 0 0 0 0 0 0 0.000625 0.625 
286 2 286 0.2625 0.1875 0 0 0 0 0 0 0 0 0 0 0.000625 0.625 
287 2 287 0.2875 0.1625 0 0 0 0 0 0 0 0 0 0 0.000625 0.625 
288 2 288 0.2875 0.1875 0 0 0 0 0 0 0 0 0 0 0.000625 0.625 
289 2 289 0.2625 0.2125 0 0 0 0 0 0 0 0 0 0 0.000625 0.625 
290 2 290 0.2625 0.2375 0 0 0 0 0 0 0 0 0 0 0.000625 0.625 
291 2 291 0.2875 0.2125 0 0 0 0 0 0 0 0 0 0 0.000625 0.625 
292 2 292 0.2875 0.2375 0 0 0 0 0 0 0 0 0 0 0.000625 0.625 
293 2 293 0.2625 0.2625 0 0 0 0 0 0 0 0 0 0 0.000625 0.625 
294 2 294 0.2625 0.2875 0 0 0 0 0 0 0 0 0 0 0.000625 0.625 
295 2 295 0.2875 0.2625 0 0 0 0 0 0 0 0 0 0 0.000625 0.625 
296 2 296 0.2875 0.2875 0 0 0 0 0 0 0 0 0 0 0.000625 0.625 
297 2 297 0.2625 0.3125 0 0 0 0 0 0 0 0 0 0 0.000625 0.625 
298 2 298 0.2625 0.3375 0 0 0 0 0 0 0 0 0 0 0.000625 0.625 
299 2 299 0.2875 0.3125 0 0 0 0 0 0 0 0 0 0 0.000625 0.625 
300 2 300 0.2875 0.3375 0 0 0 0 0 0 0 0 0 0 0.000625 0.625 
301 2 301 0.2625 0.3625 0 0 0 0 0 0 0 0 0 0 0.000625 0.625 
302 2 302 0.2625 0.3875 0 0 0 0 0 0 0 0 0 0 0.000625 0.625 
303 2 303 0.2875 0.3625 0 0 0 0 0 0 0 0 0 0 0.000625 0.625 
304 2 304 0.2875 0.3875 0 0 0 0 0 0 0 0 0 0 0.000625 0.625 
305 2 305 0.2625 0.4125 0 0 0 0 0 0 0 0 0 0 0.000625 0.625 
306 2 306 0.2625 0.4375 0 0 0 0 0 0 0 0 0 0 0.000625 0.625 
307 2 307 0.2875 0.4125 0 0 0 0 0 0 0 0 0 0 0.000625 0.625 
308 2 308 0.2875 0.4375 0 0 0 0 0 0 0 0 0 0 0.000625 0.625 
309 2 309 0.2625 0.4625 0 0 0 0 0 0 0 0 0 0 0.000625 0.625 
310 2 310 0.2625 0.4875 0 0 0 0 0 0 0 0 0 0 0.000625 0.625 
311 2 311 0.2875 0.4625 0 0 0 0 0 0 0 0 0 0 0.000625 0.625 
312 2 312 0.2875 0.4875 0 0 0 0 0 0 0 0 0 0 0.000625 0.625 
313 2 313 0.3125 0.1125 0 0 0 0 0 0 0 0 0 0 0.000625 0.625 
314 2 314 0.3125 0.1375 0 0 0 0 0 0 0 0 0 0 0.000625 0.625 
315 2 315 0.3375 0.1125 0 0 0 0 0 0 0 0 0 0 0.000625 0.625 
316 2 316 0.3375 0.1375 0 0 0 0 0 0 0 0 0 0 0.000625 0.625 
317 2 317 0.3125 0.1625 0 0 0 0 0 0 0 0 0 0 0.000625 0.625 
318 2 318 0.3125 0.1875 0 0 0 0 0 0 0 0 0 0 0.000625 0.625 
319 2 319 0.3375 0.1625 0 0 0 0 0 0 0 0 0 0 0.000625 0.625 
320 2 320 0.3375 0.1875 0 0 0 0 0 0 0 0 0 0 0.000625 0.625 
321 2 321 0.3125 0.2125 0 0 0 0 0 0 0 0 0 0 0.000625 0.625 
322 2 322 0.3125 0.2375 0 0 0 0 0 0 0 0 0 0 0.000625 0.625 
323 2 323 0.3375 0.2125 0 0 0 0 0 0 0 0 0 0 0.000625 0.625 
324 2 324 0.3375 0.2375 0 0 0 0 0 0 0 0 0 0 0.000625 0.625 
325 2 325 0.3125 0.2625 0 0 0 0 0 0 0 0 0 0 0.000625 0.625 
326 2 326 0.3125 0.2875 0 0 0 0 0 0 0 0 0 0 0.000625 0.625 
327 2 327 0.3375 0.2625 0 0 0 0 0 0 0 0 0 0 0.000625 0.625 
328 2 328 0.3375 0.2875 0 0 0 0 0 0 0 0 0 0 0.000625 0.625 
329 2 329 0.3125 0.3125 0 0 0 0 0 0 0 0 0 0 0.000625 0.625 
330 2 330 0.3125 0.3375 0 0 0 0 0 0 0 0 0 0 0.000625 0.625 
331 2 331 0.3375 0.3125 0 0 0 0 0 0 0 0 0 0 0.000625 0.625 
332 2 332 0.3375 0.3375 0 0 0 0 0 0 0 0 0 0 0.000625 0.625 
333 2 333 0.3125 0.3625 0 0 0 0 0 0 0 0 0 0 0.000625 0.625 
334 2 334 0.3125 0.3875 0 0 0 0 0 0 0 0 0 0 0.000625 0.625 
335 2 335 0.3375 0.3625 0 0 0 0 0 0 0 0 0 0 0.000625 0.625 
336 2 336 0.3375 0.3875 0 0 0 0 0 0 0 0 0 0 0.000625 0.625 
337 2 337 0.3125 0.4125 0 0 0 0 0 0 0 0 0 0 0.000625 0.625 
338 2 338 0.3125 0.4375 0 0 0 0 0 0 0 0 0 0 0.000625 0.625 
339 2 339 0.3375 0.4125 0 0 0 0 0 0 0 0 0 0 0.000625 0.625 
340 2 340 0.3375 0.4375 0 0 0 0 0 0 0 0 0 0 0.000625 0.625 
341 2 341 0.3125 0.4625 0 0 0 0 0 0 0 0 0 0 0.000625 0.625 
342 2 342 0.3125 0.4875 0 0 0 0 0 0 0 0 0 0 0.000625 0.625 
343 2 343 0.3375 0.4625 0 0 0 0 0 0 0 0 0 0 0.000625 0.625 
344 2 344 0.3375 0.4875 0 0 0 0 0 0 0 0 0 0 0.000625 0.625 
345 2 345 0.3625 0.1125 0 0 0 0 0 0 0 0 0 0 0.000625 0.625 
346 2 346 0.3625 0.1375 0 0 0 0 0 0 0 0 0 0 0.000625 0.625 
347 2 347 0.3875 0.1375 0 0 0 0 0 0 0 0 0 0 0.000625 0.625 
348 2 348 0.3625 0.1625 0 0 0 0 0 0 0 0 0 0 0.000625 0.625 
349 2 349 0.3625 0.1875 0 0 0 0 0 0 0 0 0 0 0.000625 0.625 
350 2 350 0.3875 0.1625 0 0 0 0 0 0 0 0 0 0 0.000625 0.625 
351 2 351 0.3875 0.1875 0 0 0 0 0 0 0 0 0 0 0.000625 0.625 
352 2 352 0.3625 0.2125 0 0 0 0 0 0 0 0 0 0 0.000625 0.625 
353 2 353 0.3625 0.2375 0 0 0 0 0 0 0 0 0 0 0.000625 0.625 
354 2 354 0.3875 0.2125 0 0 0 0 0 0 0 0 0 0 0.000625 0.625 
355 2 355 0.3875 0.2375 0 0 0 0 0 0 0 0 0 0 0.000625 0.625 
356 2 356 0.3625 0.2625 0 0 0 0 0 0 0 0 0 0 0.000625 0.625 
357 2 357 0.3625 0.2875 0 0 0 0 0 0 0 0 0 0 0.000625 0.625 
358 2 358 0.3875 0.2625 0 0 0 0 0 0 0 0 0 0 0.000625 0.625 
359 2 359 0.3875 0.2875 0 0 0 0 0 0 0 0 0 0 0.000625 0.625 
360 2 360 0.3625 0.3125 0 0 0 0 0 0 0 0 0 0 0.000625 0.625 
361 2 361 0.3625 0.3375 0 0 0 0 0 0 0 0 0 0 0.000625 0.625 
362 2 362 0.3875 0.3125 0 0 0 0 0 0 0 0 0 0 0.000625 0.625 
363 2 363 0.3875 0.3375 0 0 0 0 0 0 0 0 0 0 0.000625 0.625 
364 2 364 0.3625 0.3625 0 0 0 0 0 0 0 0 0 0 0.000625 0.625 
365 2 365 0.3625 0.3875 0 0 0 0 0 0 0 0 0 0 0.000625 0.625 
366 2 366 0.3875 0.3625 0 0 0 0 0 0 0 0 0 0 0.000625 0.625 
367 2 367 0.3875 0.3875 0 0 0 0 0 0 0 0 0 0 0.000625 0.625 
368 2 368 0.3625 0.4125 0 0 0 0 0 0 0 0 0 0 0.000625 0.625 
369 2 369 0.3625 0.4375 0 0 0 0 0 0 0 0 0 0 0.000625 0.625 
370 2 370 0.3875 0.4125 0 0 0 0 0 0 0 0 0 0 0.000625 0.625 
371 2 371 0.3875 0.4375 0 0 0 0 0 0 0 0 0 0 0.000625 0.625 
372 2 372 0.3625 0.4625 0 0 0 0 0 0 0 0 0 0 0.000625 0.625 
373 2 373 0.3625 0.4875 0 0 0 0 0 0 0 0 0 0 0.000625 0.625 
374 2 374 0.3875 0.4625 0 0 0 0 0 0 0 0 0 0 0.000625 0.625 
375 2 375 0.4125 0.1375 0 0 0 0 0 0 0 0 0 0 0.000625 0.625 
376 2 376 0.4125 0.1625 0 0 0 0 0 0 0 0 0 0 0.000625 0.625 
377 2 377 0.4125 0.1875 0 0 0 0 0 0 0 0 0 0 0.000625 0.625 
378 2 378 0.4375 0.1625 0 0 0 0 0 0 0 0 0 0 0.000625 0.625 
379 2 379 0.4375 0.1875 0 0 0 0 0 0 0 0 0 0 0.000625 0.625 
380 2 380 0.4125 0.2125 0 0 0 0 0 0 0 0 0 0 0.000625 0.625 
381 2 381 0.4125 0.2375 0 0 0 0 0 0 0 0 0 0 0.000625 0.625 
382 2 382 0.4375 0.2125 0 0 0 0 0 0 0 0 0 0 0.000625 0.625 
383 2 383 0.4375 0.2375 0 0 0 0 0 0 0 0 0 0 0.000625 0.625 
384 2 384 0.4125 0.2625 0 0 0 0 0 0 0 0 0 0 0.000625 0.625 
385 2 385 0.4125 0.2875 0 0 0 0 0 0 0 0 0 0 0.000625 0.625 
386 2 386 0.4375 0.2625 0 0 0 0 0 0 0 0 0 0 0.000625 0.625 
387 2 387 0.4375 0.2875 0 0 0 0 0 0 0 0 0 0 0.000625 0.625 
388 2 388 0.4125 0.3125 0 0 0 0 0 0 0 0 0 0 0.000625 0.625 
389 2 389 0.4125 0.3375 0 0 0 0 0 0 0 0 0 0 0.000625 0.625 
390 2 390 0.4375 0.3125 0 0 0 0 0 0 0 0 0 0 0.000625 0.625 
391 2 391 0.4375 0.3375 0 0 0 0 0 0 0 0 0 0 0.000625 0.625 
392 2 392 0.4125 0.3625 0 0 0 0 0 0 0 0 0 0 0.000625 0.625 
393 2 393 0.4125 0.3875 0 0 0 0 0 0 0 0 0 0 0.000625 0.625 
394 2 394 0.4375 0.3625 0 0 0 0 0 0 0 0 0 0 0.000625 0.625 
395 2 395 0.4375 0.3875 0 0 0 0 0 0 0 0 0 0 0.000625 0.625 
396 2 396 0.4125 0.4125 0 0 0 0 0 0 0 0 0 0 0.000625 0.625 
397 2 397 0.4125 0.4375 0 0 0 0 0 0 0 0 0 0 0.000625 0.625 
398 2 398 0.4375 0.4125 0 0 0 0 0 0 0 0 0 0 0.000625 0.625 
399 2 399 0.4375 0.4375 0 0 0 0 0 0 0 0 0 0 0.000625 0.625 
400 2 400 0.4125 0.4625 0 0 0 0 0 0 0 0 0 0 0.000625 0.625 
401 2 401 0.4625 0.1875 0 0 0 0 0 0 0 0 0 0 0.000625 0.625 
402 2 402 0.4625 0.2125 0 0 0 0 0 0 0 0 0 0 0.000625 0.625 
403 2 403 0.4625 0.2375 0 0 0 0 0 0 0 0 0 0 0.000625 0.625 
404 2 404 0.4875 0.2375 0 0 0 0 0 0 0 0 0 0 0.000625 0.625 
405 2 405 0.4625 0.2625 0 0 0 0 0 0 0 0 0 0 0.000625 0.625 
406 2 406 0.4625 0.2875 0 0 0 0 0 0 0 0 0 0 0.000625 0.625 
407 2 407 0.4875 0.2625 0 0 0 0 0 0 0 0 0 0 0.000625 0.625 
408 2 408 0.4875 0.2875 0 0 0 0 0 0 0 0 0 0 0.000625 0.625 
409 2 409 0.4625 0.3125 0 0 0 0 0 0 0 0 0 0 0.000625 0.625 
410 2 410 0.4625 0.3375 0 0 0 0 0 0 0 0 0 0 0.000625 0.625 
411 2 411 0.4875 0.3125 0 0 0 0 0 0 0 0 0 0 0.000625 0.625 
412 2 412 0.4875 0.3375 0 0 0 0 0 0 0 0 0 0 0.000625 0.625 
413 2 413 0.4625 0.3625 0 0 0 0 0 0 0 0 0 0 0.000625 0.625 
414 2 414 0.4625 0.3875 0 0 0 0 0 0 0 0 0 0 0.000625 0.625 
415 2 415 0.4875 0.3625 0 0 0 0 0 0 0 0 0 0 0.000625 0.625 
416 2 416 0.4625 0.4125 0 0 0 0 0 0 0 0 0 0 0.000625 0.625 
